<?xml version="1.0" encoding="UTF-8"?>

<!-- generated on Sat  9 Nov 22:36:53 2019 by Eclipse SUMO GUI Version 1.3.1
<configuration xmlns:xsi="http://www.w3.org/2001/XMLSchema-instance" xsi:noNamespaceSchemaLocation="http://sumo.dlr.de/xsd/sumoConfiguration.xsd">

    <input>
        <net-file value="osm.net.xml"/>
        <route-files value="osm_pt.rou.xml,osm.passenger.trips.xml,osm.bus.trips.xml"/>
        <additional-files value="osm.poly.xml,osm_stops.add.xml,osm.adds.xml"/>
    </input>

    <output>
        <tripinfo-output value="tripinfo.xml"/>
    </output>

    <processing>
        <ignore-route-errors value="true"/>
    </processing>

    <routing>
        <device.rerouting.adaptation-steps value="180"/>
    </routing>

    <report>
        <verbose value="true"/>
        <duration-log.statistics value="true"/>
        <no-step-log value="true"/>
    </report>

    <traci_server>
        <remote-port value="55873"/>
    </traci_server>

    <gui_only>
        <gui-settings-file value="osm.view.xml"/>
    </gui_only>

</configuration>
-->

<tripinfos xmlns:xsi="http://www.w3.org/2001/XMLSchema-instance" xsi:noNamespaceSchemaLocation="http://sumo.dlr.de/xsd/tripinfo_file.xsd">
    <tripinfo id="veh13" depart="35.00" departLane="-30517551#0_0" departPos="5.10" departSpeed="0.00" departDelay="-0.76" arrival="105.00" arrivalLane="-31237869#1_0" arrivalPos="74.73" arrivalSpeed="14.89" duration="70.00" routeLength="902.02" waitingTime="0.00" waitingCount="0" stopTime="0.00" timeLoss="10.96" rerouteNo="1" devices="tripinfo_veh13 routing_veh13" vType="veh_passenger" speedFactor="1.12" vaporized=""/>
    <tripinfo id="veh15" depart="41.00" departLane="48482415#1_0" departPos="5.10" departSpeed="0.00" departDelay="-0.27" arrival="113.00" arrivalLane="4520111#1_0" arrivalPos="5.37" arrivalSpeed="5.85" duration="72.00" routeLength="655.23" waitingTime="0.00" waitingCount="0" stopTime="0.00" timeLoss="19.16" rerouteNo="1" devices="tripinfo_veh15 routing_veh15" vType="veh_passenger" speedFactor="0.93" vaporized=""/>
    <tripinfo id="veh6" depart="16.00" departLane="-121646897_0" departPos="5.10" departSpeed="0.00" departDelay="-0.51" arrival="145.00" arrivalLane="-42788935#5_0" arrivalPos="19.10" arrivalSpeed="8.22" duration="129.00" routeLength="1582.03" waitingTime="0.00" waitingCount="0" stopTime="0.00" timeLoss="20.32" rerouteNo="1" devices="tripinfo_veh6 routing_veh6" vType="veh_passenger" speedFactor="1.05" vaporized=""/>
    <tripinfo id="veh28" depart="77.00" departLane="-36837821#2_0" departPos="5.10" departSpeed="0.00" departDelay="-0.03" arrival="145.00" arrivalLane="108152049#4_0" arrivalPos="4.91" arrivalSpeed="15.05" duration="68.00" routeLength="770.56" waitingTime="0.00" waitingCount="0" stopTime="0.00" timeLoss="16.50" rerouteNo="1" devices="tripinfo_veh28 routing_veh28" vType="veh_passenger" speedFactor="1.13" vaporized=""/>
    <tripinfo id="veh33" depart="90.00" departLane="-507832774#5_0" departPos="5.10" departSpeed="0.00" departDelay="-0.79" arrival="149.00" arrivalLane="-507832765#0_0" arrivalPos="53.95" arrivalSpeed="13.71" duration="59.00" routeLength="779.17" waitingTime="0.00" waitingCount="0" stopTime="0.00" timeLoss="9.74" rerouteNo="1" devices="tripinfo_veh33 routing_veh33" vType="veh_passenger" speedFactor="1.17" vaporized=""/>
    <tripinfo id="veh43" depart="118.00" departLane="-31237909#6_0" departPos="5.10" departSpeed="0.00" departDelay="-0.30" arrival="170.00" arrivalLane="36836343#0_0" arrivalPos="6.18" arrivalSpeed="10.87" duration="52.00" routeLength="552.26" waitingTime="0.00" waitingCount="0" stopTime="0.00" timeLoss="11.24" rerouteNo="1" devices="tripinfo_veh43 routing_veh43" vType="veh_passenger" speedFactor="1.04" vaporized=""/>
    <tripinfo id="veh37" depart="101.00" departLane="-48482402#2_0" departPos="5.10" departSpeed="0.00" departDelay="-0.79" arrival="179.00" arrivalLane="-48482407#2_0" arrivalPos="26.26" arrivalSpeed="10.15" duration="78.00" routeLength="982.28" waitingTime="0.00" waitingCount="0" stopTime="0.00" timeLoss="16.90" rerouteNo="1" devices="tripinfo_veh37 routing_veh37" vType="veh_passenger" speedFactor="1.18" vaporized=""/>
    <tripinfo id="veh45" depart="123.00" departLane="91998105#8_0" departPos="5.10" departSpeed="0.00" departDelay="-0.80" arrival="181.00" arrivalLane="31237877#11_0" arrivalPos="43.89" arrivalSpeed="14.11" duration="58.00" routeLength="703.45" waitingTime="0.00" waitingCount="0" stopTime="0.00" timeLoss="9.03" rerouteNo="1" devices="tripinfo_veh45 routing_veh45" vType="veh_passenger" speedFactor="1.09" vaporized=""/>
    <tripinfo id="veh46" depart="126.00" departLane="83418475#4_0" departPos="5.10" departSpeed="0.00" departDelay="-0.55" arrival="182.00" arrivalLane="507832774#16_0" arrivalPos="38.69" arrivalSpeed="12.63" duration="56.00" routeLength="661.73" waitingTime="0.00" waitingCount="0" stopTime="0.00" timeLoss="7.07" rerouteNo="1" devices="tripinfo_veh46 routing_veh46" vType="veh_passenger" speedFactor="1.00" vaporized=""/>
    <tripinfo id="veh30" depart="82.00" departLane="31237877#15_0" departPos="0.83" departSpeed="0.00" departDelay="-0.53" arrival="185.00" arrivalLane="42295440#1_0" arrivalPos="40.19" arrivalSpeed="15.62" duration="103.00" routeLength="1354.74" waitingTime="0.00" waitingCount="0" stopTime="0.00" timeLoss="17.96" rerouteNo="1" devices="tripinfo_veh30 routing_veh30" vType="veh_passenger" speedFactor="1.18" vaporized=""/>
    <tripinfo id="veh36" depart="99.00" departLane="700784718#1_0" departPos="5.10" departSpeed="0.00" departDelay="-0.04" arrival="185.00" arrivalLane="23477212#6_0" arrivalPos="59.78" arrivalSpeed="13.43" duration="86.00" routeLength="1009.75" waitingTime="0.00" waitingCount="0" stopTime="0.00" timeLoss="10.36" rerouteNo="1" devices="tripinfo_veh36 routing_veh36" vType="veh_passenger" speedFactor="0.97" vaporized=""/>
    <tripinfo id="veh27" depart="74.00" departLane="-372055889#5_0" departPos="0.20" departSpeed="0.00" departDelay="-0.28" arrival="187.00" arrivalLane="4520111#0_0" arrivalPos="51.04" arrivalSpeed="12.25" duration="113.00" routeLength="1269.30" waitingTime="0.00" waitingCount="0" stopTime="0.00" timeLoss="13.67" rerouteNo="1" devices="tripinfo_veh27 routing_veh27" vType="veh_passenger" speedFactor="0.95" vaporized=""/>
    <tripinfo id="veh42" depart="115.00" departLane="-30516634#5_0" departPos="5.10" departSpeed="0.00" departDelay="-0.55" arrival="192.00" arrivalLane="-22977266#2_0" arrivalPos="9.11" arrivalSpeed="6.52" duration="77.00" routeLength="827.43" waitingTime="0.00" waitingCount="0" stopTime="0.00" timeLoss="18.96" rerouteNo="1" devices="tripinfo_veh42 routing_veh42" vType="veh_passenger" speedFactor="1.09" vaporized=""/>
    <tripinfo id="veh9" depart="24.00" departLane="48482428_0" departPos="5.10" departSpeed="0.00" departDelay="-0.76" arrival="193.00" arrivalLane="-107760230#1_0" arrivalPos="26.29" arrivalSpeed="10.38" duration="169.00" routeLength="1686.54" waitingTime="3.00" waitingCount="1" stopTime="0.00" timeLoss="24.88" rerouteNo="1" devices="tripinfo_veh9 routing_veh9" vType="veh_passenger" speedFactor="0.86" vaporized=""/>
    <tripinfo id="veh40" depart="110.00" departLane="107760250_0" departPos="5.10" departSpeed="0.00" departDelay="-0.04" arrival="195.00" arrivalLane="-4520111#7_0" arrivalPos="5.84" arrivalSpeed="5.32" duration="85.00" routeLength="1154.90" waitingTime="0.00" waitingCount="0" stopTime="0.00" timeLoss="14.64" rerouteNo="1" devices="tripinfo_veh40 routing_veh40" vType="veh_passenger" speedFactor="1.03" vaporized=""/>
    <tripinfo id="veh29" depart="79.00" departLane="89183662#1_0" departPos="2.55" departSpeed="0.00" departDelay="-0.78" arrival="202.00" arrivalLane="36836344#1_0" arrivalPos="154.40" arrivalSpeed="12.04" duration="123.00" routeLength="1335.91" waitingTime="8.00" waitingCount="1" stopTime="0.00" timeLoss="28.91" rerouteNo="1" devices="tripinfo_veh29 routing_veh29" vType="veh_passenger" speedFactor="0.93" vaporized=""/>
    <tripinfo id="veh20" depart="55.00" departLane="-4520111#4_0" departPos="5.10" departSpeed="0.00" departDelay="-0.02" arrival="206.00" arrivalLane="-507832774#17_0" arrivalPos="75.64" arrivalSpeed="13.75" duration="151.00" routeLength="1975.33" waitingTime="0.00" waitingCount="0" stopTime="0.00" timeLoss="20.62" rerouteNo="1" devices="tripinfo_veh20 routing_veh20" vType="veh_passenger" speedFactor="1.02" vaporized=""/>
    <tripinfo id="veh41" depart="112.00" departLane="96774795#0_0" departPos="5.10" departSpeed="0.00" departDelay="-0.80" arrival="207.00" arrivalLane="303241433#1_0" arrivalPos="12.69" arrivalSpeed="13.21" duration="95.00" routeLength="1322.82" waitingTime="0.00" waitingCount="0" stopTime="0.00" timeLoss="14.46" rerouteNo="1" devices="tripinfo_veh41 routing_veh41" vType="veh_passenger" speedFactor="0.96" vaporized=""/>
    <tripinfo id="veh3" depart="8.00" departLane="62020104#2_0" departPos="3.17" departSpeed="0.00" departDelay="-0.25" arrival="219.00" arrivalLane="-30515623#1_0" arrivalPos="66.58" arrivalSpeed="14.37" duration="211.00" routeLength="2645.77" waitingTime="8.00" waitingCount="1" stopTime="0.00" timeLoss="46.17" rerouteNo="1" devices="tripinfo_veh3 routing_veh3" vType="veh_passenger" speedFactor="1.08" vaporized=""/>
    <tripinfo id="veh0" depart="0.00" departLane="36827471#3_0" departPos="5.10" departSpeed="0.00" departDelay="0.00" arrival="227.00" arrivalLane="-135569565#0_0" arrivalPos="65.00" arrivalSpeed="14.46" duration="227.00" routeLength="2479.39" waitingTime="38.00" waitingCount="3" stopTime="0.00" timeLoss="81.30" rerouteNo="1" devices="tripinfo_veh0 routing_veh0" vType="veh_passenger" speedFactor="1.06" vaporized=""/>
    <tripinfo id="veh24" depart="66.00" departLane="-8149308#12_0" departPos="5.10" departSpeed="0.00" departDelay="-0.03" arrival="228.00" arrivalLane="-4520109#3_0" arrivalPos="169.21" arrivalSpeed="8.24" duration="162.00" routeLength="1463.81" waitingTime="0.00" waitingCount="0" stopTime="0.00" timeLoss="16.96" rerouteNo="1" devices="tripinfo_veh24 routing_veh24" vType="veh_passenger" speedFactor="0.83" vaporized=""/>
    <tripinfo id="veh10" depart="27.00" departLane="48482412#4_0" departPos="0.20" departSpeed="0.00" departDelay="-0.51" arrival="229.00" arrivalLane="42295726#0_0" arrivalPos="0.30" arrivalSpeed="6.75" duration="202.00" routeLength="2464.30" waitingTime="8.00" waitingCount="1" stopTime="0.00" timeLoss="37.76" rerouteNo="1" devices="tripinfo_veh10 routing_veh10" vType="veh_passenger" speedFactor="1.09" vaporized=""/>
    <tripinfo id="veh4" depart="11.00" departLane="121646897_0" departPos="5.10" departSpeed="0.00" departDelay="0.00" arrival="233.00" arrivalLane="-164391748#2_0" arrivalPos="81.36" arrivalSpeed="13.36" duration="222.00" routeLength="2663.06" waitingTime="2.00" waitingCount="2" stopTime="0.00" timeLoss="39.74" rerouteNo="1" devices="tripinfo_veh4 routing_veh4" vType="veh_passenger" speedFactor="1.03" vaporized=""/>
    <tripinfo id="veh14" depart="38.00" departLane="507832770#22_0" departPos="5.10" departSpeed="0.00" departDelay="-0.52" arrival="242.00" arrivalLane="342241093#1_0" arrivalPos="50.99" arrivalSpeed="12.67" duration="204.00" routeLength="2242.95" waitingTime="1.00" waitingCount="1" stopTime="0.00" timeLoss="34.56" rerouteNo="1" devices="tripinfo_veh14 routing_veh14" vType="veh_passenger" speedFactor="0.99" vaporized=""/>
    <tripinfo id="veh31" depart="85.00" departLane="507832770#13_0" departPos="5.10" departSpeed="0.00" departDelay="-0.28" arrival="245.00" arrivalLane="476050646#5_0" arrivalPos="35.87" arrivalSpeed="15.18" duration="160.00" routeLength="2136.51" waitingTime="0.00" waitingCount="0" stopTime="0.00" timeLoss="22.64" rerouteNo="1" devices="tripinfo_veh31 routing_veh31" vType="veh_passenger" speedFactor="1.15" vaporized=""/>
    <tripinfo id="veh17" depart="46.00" departLane="507794808#2_0" departPos="5.10" departSpeed="0.00" departDelay="-0.77" arrival="249.00" arrivalLane="36827471#3_0" arrivalPos="21.16" arrivalSpeed="11.70" duration="203.00" routeLength="2439.95" waitingTime="4.00" waitingCount="1" stopTime="0.00" timeLoss="32.71" rerouteNo="1" devices="tripinfo_veh17 routing_veh17" vType="veh_passenger" speedFactor="0.94" vaporized=""/>
    <tripinfo id="veh38" depart="104.00" departLane="31237890#11_0" departPos="5.10" departSpeed="0.00" departDelay="-0.54" arrival="249.00" arrivalLane="-48982166#7_0" arrivalPos="27.62" arrivalSpeed="12.09" duration="145.00" routeLength="1531.84" waitingTime="7.00" waitingCount="2" stopTime="0.00" timeLoss="43.91" rerouteNo="1" devices="tripinfo_veh38 routing_veh38" vType="veh_passenger" speedFactor="1.10" vaporized=""/>
    <tripinfo id="veh76" depart="209.00" departLane="-4520111#6_0" departPos="1.65" departSpeed="0.00" departDelay="-0.08" arrival="250.00" arrivalLane="646510833#2_0" arrivalPos="10.65" arrivalSpeed="9.35" duration="41.00" routeLength="419.23" waitingTime="0.00" waitingCount="0" stopTime="0.00" timeLoss="7.87" rerouteNo="1" devices="tripinfo_veh76 routing_veh76" vType="veh_passenger" speedFactor="0.98" vaporized=""/>
    <tripinfo id="veh1" depart="2.00" departLane="-48482428_0" departPos="5.10" departSpeed="0.00" departDelay="-0.75" arrival="251.00" arrivalLane="-4520142#8_0" arrivalPos="172.64" arrivalSpeed="11.88" duration="249.00" routeLength="2840.35" waitingTime="9.00" waitingCount="1" stopTime="0.00" timeLoss="46.84" rerouteNo="1" devices="tripinfo_veh1 routing_veh1" vType="veh_passenger" speedFactor="0.94" vaporized=""/>
    <tripinfo id="veh26" depart="71.00" departLane="36836343#0_0" departPos="5.10" departSpeed="0.00" departDelay="-0.53" arrival="252.00" arrivalLane="342241103_0" arrivalPos="122.50" arrivalSpeed="11.99" duration="181.00" routeLength="1809.21" waitingTime="6.00" waitingCount="1" stopTime="0.00" timeLoss="34.38" rerouteNo="1" devices="tripinfo_veh26 routing_veh26" vType="veh_passenger" speedFactor="0.92" vaporized=""/>
    <tripinfo id="veh8" depart="22.00" departLane="-4520109#6_0" departPos="5.10" departSpeed="0.00" departDelay="-0.01" arrival="256.00" arrivalLane="342241088#13_0" arrivalPos="15.46" arrivalSpeed="8.98" duration="234.00" routeLength="2534.99" waitingTime="0.00" waitingCount="0" stopTime="0.00" timeLoss="23.09" rerouteNo="1" devices="tripinfo_veh8 routing_veh8" vType="veh_passenger" speedFactor="0.94" vaporized=""/>
    <tripinfo id="veh18" depart="49.00" departLane="507832774#7_0" departPos="5.10" departSpeed="0.00" departDelay="-0.52" arrival="258.00" arrivalLane="340581997_1" arrivalPos="10.48" arrivalSpeed="7.29" duration="209.00" routeLength="2453.49" waitingTime="8.00" waitingCount="1" stopTime="0.00" timeLoss="32.92" rerouteNo="1" devices="tripinfo_veh18 routing_veh18" vType="veh_passenger" speedFactor="0.94" vaporized=""/>
    <tripinfo id="veh22" depart="60.00" departLane="-31237877#15_0" departPos="0.83" departSpeed="0.00" departDelay="-0.52" arrival="258.00" arrivalLane="-507832770#19_0" arrivalPos="16.13" arrivalSpeed="12.81" duration="198.00" routeLength="2301.04" waitingTime="0.00" waitingCount="0" stopTime="0.00" timeLoss="23.61" rerouteNo="1" devices="tripinfo_veh22 routing_veh22" vType="veh_passenger" speedFactor="0.98" vaporized=""/>
    <tripinfo id="veh21" depart="57.00" departLane="-28885945#3_0" departPos="5.10" departSpeed="0.00" departDelay="-0.77" arrival="272.00" arrivalLane="-4767531#1_0" arrivalPos="186.52" arrivalSpeed="13.89" duration="215.00" routeLength="2319.77" waitingTime="9.00" waitingCount="3" stopTime="0.00" timeLoss="53.53" rerouteNo="1" devices="tripinfo_veh21 routing_veh21" vType="veh_passenger" speedFactor="1.01" vaporized=""/>
    <tripinfo id="veh58" depart="159.00" departLane="476050528_1" departPos="5.10" departSpeed="0.00" departDelay="-0.56" arrival="272.00" arrivalLane="31237877#14_0" arrivalPos="62.17" arrivalSpeed="15.17" duration="113.00" routeLength="1027.19" waitingTime="9.00" waitingCount="3" stopTime="0.00" timeLoss="43.61" rerouteNo="1" devices="tripinfo_veh58 routing_veh58" vType="veh_passenger" speedFactor="1.14" vaporized=""/>
    <tripinfo id="veh2" depart="5.00" departLane="4520110#7_0" departPos="5.10" departSpeed="0.00" departDelay="-0.50" arrival="275.00" arrivalLane="37997250#2_0" arrivalPos="247.04" arrivalSpeed="13.10" duration="270.00" routeLength="3128.45" waitingTime="10.00" waitingCount="2" stopTime="0.00" timeLoss="44.39" rerouteNo="1" devices="tripinfo_veh2 routing_veh2" vType="veh_passenger" speedFactor="1.01" vaporized=""/>
    <tripinfo id="veh19" depart="52.00" departLane="40114658#0_0" departPos="5.10" departSpeed="0.00" departDelay="-0.27" arrival="277.00" arrivalLane="-22886419#9_0" arrivalPos="140.74" arrivalSpeed="16.01" duration="225.00" routeLength="3478.76" waitingTime="0.00" waitingCount="0" stopTime="0.00" timeLoss="39.19" rerouteNo="1" devices="tripinfo_veh19 routing_veh19" vType="veh_passenger" speedFactor="1.16" vaporized=""/>
    <tripinfo id="veh12" depart="33.00" departLane="76232780_1" departPos="5.10" departSpeed="14.54" departDelay="-0.01" arrival="278.00" arrivalLane="-74837535#0_0" arrivalPos="9.45" arrivalSpeed="7.13" duration="245.00" routeLength="3019.41" waitingTime="12.00" waitingCount="1" stopTime="0.00" timeLoss="38.00" rerouteNo="1" devices="tripinfo_veh12 routing_veh12" vType="veh_passenger" speedFactor="1.05" vaporized=""/>
    <tripinfo id="99east.0" depart="10.00" departLane="517643071#2_0" departPos="12.10" departSpeed="0.00" departDelay="0.00" arrival="278.00" arrivalLane="480409005#1_0" arrivalPos="945.41" arrivalSpeed="13.89" duration="268.00" routeLength="2537.70" waitingTime="16.00" waitingCount="2" stopTime="42.00" timeLoss="35.35" rerouteNo="1" devices="tripinfo_99east.0 routing_99east.0" vType="BUS" speedFactor="1.00" vaporized=""/>
    <tripinfo id="veh53" depart="145.00" departLane="255865855#0_1" departPos="5.10" departSpeed="0.00" departDelay="-0.81" arrival="279.00" arrivalLane="-37967011#2_0" arrivalPos="54.38" arrivalSpeed="13.28" duration="134.00" routeLength="1619.26" waitingTime="3.00" waitingCount="1" stopTime="0.00" timeLoss="28.59" rerouteNo="1" devices="tripinfo_veh53 routing_veh53" vType="veh_passenger" speedFactor="1.02" vaporized=""/>
    <tripinfo id="veh7" depart="19.00" departLane="36836343#1_0" departPos="5.10" departSpeed="0.00" departDelay="-0.26" arrival="281.00" arrivalLane="323346942#2_0" arrivalPos="27.42" arrivalSpeed="2.93" duration="262.00" routeLength="2381.41" waitingTime="9.00" waitingCount="2" stopTime="0.00" timeLoss="39.92" rerouteNo="1" devices="tripinfo_veh7 routing_veh7" vType="veh_passenger" speedFactor="0.89" vaporized=""/>
    <tripinfo id="veh72" depart="198.00" departLane="22776252#10_0" departPos="5.10" departSpeed="0.00" departDelay="-0.08" arrival="289.00" arrivalLane="30516632#1_0" arrivalPos="34.02" arrivalSpeed="13.24" duration="91.00" routeLength="680.01" waitingTime="31.00" waitingCount="1" stopTime="0.00" timeLoss="48.57" rerouteNo="1" devices="tripinfo_veh72 routing_veh72" vType="veh_passenger" speedFactor="0.97" vaporized=""/>
    <tripinfo id="99west.0" depart="10.00" departLane="4611767#0_0" departPos="12.10" departSpeed="0.00" departDelay="0.00" arrival="300.00" arrivalLane="684296429#5_0" arrivalPos="26.11" arrivalSpeed="4.17" duration="290.00" routeLength="2823.53" waitingTime="16.00" waitingCount="2" stopTime="21.00" timeLoss="34.45" rerouteNo="1" devices="tripinfo_99west.0 routing_99west.0" vType="BUS" speedFactor="1.00" vaporized=""/>
    <tripinfo id="veh5" depart="13.00" departLane="-4520109#2_0" departPos="5.10" departSpeed="0.00" departDelay="-0.76" arrival="308.00" arrivalLane="303129468#1_0" arrivalPos="178.68" arrivalSpeed="11.11" duration="295.00" routeLength="3004.35" waitingTime="0.00" waitingCount="0" stopTime="0.00" timeLoss="26.98" rerouteNo="1" devices="tripinfo_veh5 routing_veh5" vType="veh_passenger" speedFactor="0.83" vaporized=""/>
    <tripinfo id="veh55" depart="151.00" departLane="-507832770#2_0" departPos="5.10" departSpeed="0.00" departDelay="-0.31" arrival="308.00" arrivalLane="36836344#0_0" arrivalPos="3.45" arrivalSpeed="10.91" duration="157.00" routeLength="1929.11" waitingTime="2.00" waitingCount="1" stopTime="0.00" timeLoss="24.52" rerouteNo="1" devices="tripinfo_veh55 routing_veh55" vType="veh_passenger" speedFactor="1.00" vaporized=""/>
    <tripinfo id="veh97" depart="266.00" departLane="23477212#2_0" departPos="5.10" departSpeed="0.00" departDelay="-0.86" arrival="309.00" arrivalLane="-4520110#4_0" arrivalPos="26.06" arrivalSpeed="12.16" duration="43.00" routeLength="451.65" waitingTime="0.00" waitingCount="0" stopTime="0.00" timeLoss="6.79" rerouteNo="1" devices="tripinfo_veh97 routing_veh97" vType="veh_passenger" speedFactor="0.92" vaporized=""/>
    <tripinfo id="veh16" depart="44.00" departLane="303241436#2_0" departPos="1.46" departSpeed="0.00" departDelay="-0.02" arrival="310.00" arrivalLane="83423747#2_0" arrivalPos="23.53" arrivalSpeed="11.51" duration="266.00" routeLength="2637.64" waitingTime="11.00" waitingCount="3" stopTime="0.00" timeLoss="43.33" rerouteNo="1" devices="tripinfo_veh16 routing_veh16" vType="veh_passenger" speedFactor="0.88" vaporized=""/>
    <tripinfo id="veh59" depart="162.00" departLane="-107395342#1_0" departPos="5.10" departSpeed="0.00" departDelay="-0.32" arrival="312.00" arrivalLane="-6274923#0_0" arrivalPos="3.81" arrivalSpeed="5.22" duration="150.00" routeLength="1859.29" waitingTime="0.00" waitingCount="0" stopTime="0.00" timeLoss="21.64" rerouteNo="1" devices="tripinfo_veh59 routing_veh59" vType="veh_passenger" speedFactor="1.02" vaporized=""/>
    <tripinfo id="veh81" depart="222.00" departLane="232493265#6_1" departPos="0.20" departSpeed="0.00" departDelay="-0.84" arrival="317.00" arrivalLane="48482376#0_0" arrivalPos="29.09" arrivalSpeed="12.74" duration="95.00" routeLength="984.11" waitingTime="2.00" waitingCount="1" stopTime="0.00" timeLoss="22.14" rerouteNo="1" devices="tripinfo_veh81 routing_veh81" vType="veh_passenger" speedFactor="1.03" vaporized=""/>
    <tripinfo id="veh89" depart="244.00" departLane="-42295443#1_0" departPos="5.10" departSpeed="14.48" departDelay="-0.85" arrival="319.00" arrivalLane="232493266#0_0" arrivalPos="119.46" arrivalSpeed="13.95" duration="75.00" routeLength="948.02" waitingTime="0.00" waitingCount="0" stopTime="0.00" timeLoss="7.87" rerouteNo="1" devices="tripinfo_veh89 routing_veh89" vType="veh_passenger" speedFactor="1.04" vaporized=""/>
    <tripinfo id="veh32" depart="90.00" departLane="-4520111#7_0" departPos="5.10" departSpeed="0.00" departDelay="1.96" arrival="322.00" arrivalLane="-164391763#0_0" arrivalPos="1.35" arrivalSpeed="12.86" duration="232.00" routeLength="2473.41" waitingTime="14.00" waitingCount="3" stopTime="0.00" timeLoss="54.87" rerouteNo="1" devices="tripinfo_veh32 routing_veh32" vType="veh_passenger" speedFactor="1.01" vaporized=""/>
    <tripinfo id="veh51" depart="140.00" departLane="232483173_0" departPos="5.10" departSpeed="0.11" departDelay="-0.31" arrival="322.00" arrivalLane="75119994_0" arrivalPos="3.24" arrivalSpeed="11.74" duration="182.00" routeLength="1894.65" waitingTime="0.00" waitingCount="0" stopTime="0.00" timeLoss="18.30" rerouteNo="1" devices="tripinfo_veh51 routing_veh51" vType="veh_passenger" speedFactor="0.85" vaporized=""/>
    <tripinfo id="veh63" depart="173.00" departLane="-30515623#3_0" departPos="5.10" departSpeed="0.00" departDelay="-0.32" arrival="324.00" arrivalLane="255866006#0_0" arrivalPos="29.93" arrivalSpeed="13.92" duration="151.00" routeLength="1829.91" waitingTime="0.00" waitingCount="0" stopTime="0.00" timeLoss="24.60" rerouteNo="1" devices="tripinfo_veh63 routing_veh63" vType="veh_passenger" speedFactor="1.02" vaporized=""/>
    <tripinfo id="veh77" depart="211.00" departLane="507832774#26_0" departPos="5.10" departSpeed="0.00" departDelay="-0.84" arrival="326.00" arrivalLane="-255865853#3_0" arrivalPos="8.18" arrivalSpeed="5.51" duration="115.00" routeLength="1398.81" waitingTime="0.00" waitingCount="0" stopTime="0.00" timeLoss="15.46" rerouteNo="1" devices="tripinfo_veh77 routing_veh77" vType="veh_passenger" speedFactor="1.03" vaporized=""/>
    <tripinfo id="veh83" depart="228.00" departLane="-31237869#2_0" departPos="5.10" departSpeed="0.00" departDelay="-0.34" arrival="327.00" arrivalLane="232491273#2_0" arrivalPos="43.85" arrivalSpeed="7.30" duration="99.00" routeLength="1049.31" waitingTime="2.00" waitingCount="1" stopTime="0.00" timeLoss="23.81" rerouteNo="1" devices="tripinfo_veh83 routing_veh83" vType="veh_passenger" speedFactor="1.02" vaporized=""/>
    <tripinfo id="veh64" depart="176.00" departLane="-255865853#0_0" departPos="5.10" departSpeed="0.00" departDelay="-0.07" arrival="333.00" arrivalLane="473557884#1_0" arrivalPos="16.34" arrivalSpeed="12.98" duration="157.00" routeLength="1897.36" waitingTime="0.00" waitingCount="0" stopTime="0.00" timeLoss="16.08" rerouteNo="1" devices="tripinfo_veh64 routing_veh64" vType="veh_passenger" speedFactor="0.99" vaporized=""/>
    <tripinfo id="veh48" depart="132.00" departLane="36837897#5_0" departPos="5.10" departSpeed="0.00" departDelay="-0.05" arrival="335.00" arrivalLane="31237890#6_0" arrivalPos="13.77" arrivalSpeed="8.51" duration="203.00" routeLength="2087.45" waitingTime="1.00" waitingCount="1" stopTime="0.00" timeLoss="28.14" rerouteNo="1" devices="tripinfo_veh48 routing_veh48" vType="veh_passenger" speedFactor="0.88" vaporized=""/>
    <tripinfo id="veh56" depart="154.00" departLane="341691688_0" departPos="5.10" departSpeed="0.00" departDelay="-0.06" arrival="339.00" arrivalLane="-36827471#7_0" arrivalPos="104.77" arrivalSpeed="13.57" duration="185.00" routeLength="2315.01" waitingTime="5.00" waitingCount="1" stopTime="0.00" timeLoss="33.77" rerouteNo="1" devices="tripinfo_veh56 routing_veh56" vType="veh_passenger" speedFactor="1.00" vaporized=""/>
    <tripinfo id="veh44" depart="121.00" departLane="-23477220#10_0" departPos="5.10" departSpeed="0.00" departDelay="-0.05" arrival="341.00" arrivalLane="108152050#4_0" arrivalPos="107.35" arrivalSpeed="22.70" duration="220.00" routeLength="2608.47" waitingTime="12.00" waitingCount="2" stopTime="0.00" timeLoss="61.56" rerouteNo="1" devices="tripinfo_veh44 routing_veh44" vType="veh_passenger" speedFactor="1.04" vaporized=""/>
    <tripinfo id="veh54" depart="148.00" departLane="700202724#2_1" departPos="5.10" departSpeed="0.00" departDelay="-0.56" arrival="342.00" arrivalLane="53559243#1_0" arrivalPos="20.26" arrivalSpeed="13.23" duration="194.00" routeLength="2065.05" waitingTime="13.00" waitingCount="4" stopTime="0.00" timeLoss="56.03" rerouteNo="1" devices="tripinfo_veh54 routing_veh54" vType="veh_passenger" speedFactor="1.10" vaporized=""/>
    <tripinfo id="veh25" depart="68.00" departLane="-48482406#2_0" departPos="5.10" departSpeed="0.00" departDelay="-0.78" arrival="343.00" arrivalLane="74399871#1_0" arrivalPos="12.88" arrivalSpeed="13.38" duration="275.00" routeLength="3052.11" waitingTime="20.00" waitingCount="2" stopTime="0.00" timeLoss="58.41" rerouteNo="1" devices="tripinfo_veh25 routing_veh25" vType="veh_passenger" speedFactor="0.87" vaporized=""/>
    <tripinfo id="veh35" depart="96.00" departLane="36836343#6_0" departPos="5.10" departSpeed="0.00" departDelay="-0.29" arrival="343.00" arrivalLane="116785436#0_0" arrivalPos="46.51" arrivalSpeed="12.99" duration="247.00" routeLength="2932.86" waitingTime="10.00" waitingCount="2" stopTime="0.00" timeLoss="53.04" rerouteNo="1" devices="tripinfo_veh35 routing_veh35" vType="veh_passenger" speedFactor="1.02" vaporized=""/>
    <tripinfo id="veh88" depart="242.00" departLane="507832774#7_0" departPos="5.10" departSpeed="0.00" departDelay="-0.10" arrival="349.00" arrivalLane="-48482409#0_0" arrivalPos="62.15" arrivalSpeed="12.82" duration="107.00" routeLength="1231.90" waitingTime="0.00" waitingCount="0" stopTime="0.00" timeLoss="15.36" rerouteNo="1" devices="tripinfo_veh88 routing_veh88" vType="veh_passenger" speedFactor="1.00" vaporized=""/>
    <tripinfo id="veh61" depart="167.00" departLane="62020053_0" departPos="5.10" departSpeed="6.02" departDelay="-0.82" arrival="351.00" arrivalLane="507794808#2_0" arrivalPos="49.34" arrivalSpeed="14.47" duration="184.00" routeLength="2079.92" waitingTime="2.00" waitingCount="1" stopTime="0.00" timeLoss="45.10" rerouteNo="1" devices="tripinfo_veh61 routing_veh61" vType="veh_passenger" speedFactor="1.08" vaporized=""/>
    <tripinfo id="veh93" depart="255.00" departLane="31237869#2_0" departPos="5.10" departSpeed="0.00" departDelay="-0.85" arrival="355.00" arrivalLane="-232483173_0" arrivalPos="5.21" arrivalSpeed="7.08" duration="100.00" routeLength="1107.67" waitingTime="0.00" waitingCount="0" stopTime="0.00" timeLoss="18.93" rerouteNo="1" devices="tripinfo_veh93 routing_veh93" vType="veh_passenger" speedFactor="1.02" vaporized=""/>
    <tripinfo id="veh34" depart="93.00" departLane="-4518151#11_0" departPos="5.10" departSpeed="0.00" departDelay="-0.54" arrival="357.00" arrivalLane="74399906_0" arrivalPos="90.65" arrivalSpeed="16.57" duration="264.00" routeLength="3860.55" waitingTime="32.00" waitingCount="3" stopTime="0.00" timeLoss="68.09" rerouteNo="1" devices="tripinfo_veh34 routing_veh34" vType="veh_passenger" speedFactor="0.99" vaporized=""/>
    <tripinfo id="4west.0" depart="50.00" departLane="4611767#0_0" departPos="12.10" departSpeed="0.00" departDelay="0.00" arrival="357.00" arrivalLane="341691680#3_0" arrivalPos="57.83" arrivalSpeed="13.89" duration="307.00" routeLength="2620.89" waitingTime="13.00" waitingCount="1" stopTime="84.00" timeLoss="33.62" rerouteNo="1" devices="tripinfo_4west.0 routing_4west.0" vType="BUS" speedFactor="1.00" vaporized=""/>